LAMMPS data file for reline (OPLS-DES), built by build_data.py

380 atoms
340 bonds
550 angles
740 dihedrals

15 atom types
11 bond types
17 angle types
14 dihedral types

0.000000 14.728258 xlo xhi
0.000000 14.728258 ylo yhi
0.000000 14.728258 zlo zhi

Masses

1 12.0110
2 1.0080
3 14.0070
4 12.0110
5 1.0080
6 15.9990
7 1.0080
8 12.0110
9 1.0080
10 35.4500
11 12.0110
12 15.9990
13 14.0070
14 1.0080
15 1.0080

Atoms  # full

1 1 1 -0.131000 11.254593 7.466773 1.427663
2 1 2 0.068000 10.489026 7.979252 1.973210
3 1 2 0.068000 11.103572 7.614322 0.378010
4 1 3 0.791000 11.196745 6.030214 1.734015
5 1 4 0.132000 12.632925 8.023321 1.831341
6 1 5 0.034000 13.397558 7.510804 1.285443
7 1 5 0.034000 12.783011 7.875734 2.880643
8 1 6 -0.468000 12.689199 9.420790 1.533325
9 1 7 0.275000 13.548269 9.767317 1.785005
10 1 8 -0.100000 11.403763 5.827772 3.175025
11 1 9 0.033000 10.955326 4.903576 3.473394
12 1 9 0.033000 12.451866 5.800563 3.384499
13 1 9 0.033000 10.952976 6.633718 3.716628
14 1 8 -0.100000 9.881090 5.499586 1.348553
15 1 9 0.033000 9.118693 5.987684 1.919528
16 1 9 0.033000 9.715176 5.679068 0.306678
17 1 9 0.033000 9.851678 4.447389 1.538483
18 1 8 -0.100000 12.247534 5.326724 0.984819
19 1 9 0.033000 12.031368 4.279443 0.965800
20 1 9 0.033000 12.283447 5.701959 -0.017510
21 1 9 0.033000 13.192849 5.488001 1.458940
22 2 1 -0.131000 9.842988 9.962054 11.278526
23 2 2 0.068000 9.500244 10.212926 12.261348
24 2 2 0.068000 9.000743 9.821837 10.632529
25 2 3 0.791000 10.629016 8.721158 11.335425
26 2 4 0.132000 10.722852 11.103352 10.734671
27 2 5 0.034000 11.064801 10.851993 9.752209
28 2 5 0.034000 11.564302 11.243082 11.381028
29 2 6 -0.468000 9.958213 12.310483 10.679319
30 2 7 0.275000 10.506808 13.021521 10.340360
31 2 8 -0.100000 11.785042 8.913634 12.222503
32 2 9 0.033000 12.100845 7.966832 12.607331
33 2 9 0.033000 12.585655 9.361226 11.673123
34 2 9 0.033000 11.508495 9.553999 13.034627
35 2 8 -0.100000 9.788805 7.632275 11.854536
36 2 9 0.033000 9.475173 7.867829 12.850352
37 2 9 0.033000 8.928530 7.515917 11.228729
38 2 9 0.033000 10.350126 6.721827 11.862368
39 2 8 -0.100000 11.099227 8.376670 9.986138
40 2 9 0.033000 11.405968 7.352265 9.966329
41 2 9 0.033000 10.305539 8.525197 9.282750
42 2 9 0.033000 11.926768 9.002653 9.725863
43 3 1 -0.131000 1.055929 6.225860 6.672699
44 3 2 0.068000 1.488820 7.204759 6.646007
45 3 2 0.068000 -0.007185 6.308990 6.768766
46 3 3 0.791000 1.595173 5.482592 7.820596
47 3 4 0.132000 1.396859 5.477960 5.370043
48 3 5 0.034000 0.963602 4.499756 5.397356
49 3 5 0.034000 2.459608 5.395525 5.274597
50 3 6 -0.468000 0.872288 6.201004 4.253381
51 3 7 0.275000 1.084916 5.734669 3.441749
52 3 8 -0.100000 3.054634 5.368789 7.688797
53 3 9 0.033000 3.490798 5.235442 8.656391
54 3 9 0.033000 3.292637 4.529490 7.070679
55 3 9 0.033000 3.442972 6.261217 7.242864
56 3 8 -0.100000 1.269506 6.196818 9.063543
57 3 9 0.033000 1.731596 7.162131 9.051475
58 3 9 0.033000 0.208368 6.311288 9.141837
59 3 9 0.033000 1.630840 5.637857 9.900835
60 3 8 -0.100000 1.000622 4.138900 7.857345
61 3 9 0.033000 1.150357 3.709255 8.825267
62 3 9 0.033000 -0.048868 4.207264 7.655718
63 3 9 0.033000 1.465531 3.522476 7.116871
64 4 1 -0.131000 5.607953 12.338565 5.899166
65 4 2 0.068000 5.421002 11.347876 5.538703
66 4 2 0.068000 4.888084 13.011649 5.480721
67 4 3 0.791000 6.959774 12.757720 5.501938
68 4 4 0.132000 5.495001 12.355916 7.435213
69 4 5 0.034000 5.681704 13.346493 7.794715
70 4 5 0.034000 6.214623 11.682720 7.852696
71 4 6 -0.468000 4.179965 11.948167 7.821633
72 4 7 0.275000 4.109900 11.959086 8.778919
73 4 8 -0.100000 7.947916 11.833491 6.076155
74 4 9 0.033000 8.837680 11.848806 5.482570
75 4 9 0.033000 8.179668 12.134813 7.075473
76 4 9 0.033000 7.544239 10.842024 6.087518
77 4 8 -0.100000 7.067007 12.740976 4.035883
78 4 9 0.033000 6.914632 11.743617 3.678731
79 4 9 0.033000 6.323784 13.386577 3.616282
80 4 9 0.033000 8.039090 13.080056 3.745820
81 4 8 -0.100000 7.216220 14.117848 5.996547
82 4 9 0.033000 8.051354 14.535265 5.474818
83 4 9 0.033000 6.351207 14.726982 5.830825
84 4 9 0.033000 7.430656 14.082253 7.044006
85 5 1 -0.131000 5.748093 0.941340 0.984580
86 5 2 0.068000 5.444713 0.786549 -0.030481
87 5 2 0.068000 5.890694 -0.006231 1.462202
88 5 3 0.791000 4.708307 1.697782 1.697000
89 5 4 0.132000 7.068860 1.733423 1.010648
90 5 5 0.034000 7.371581 1.887486 2.025521
91 5 5 0.034000 6.925600 2.680267 0.532837
92 5 6 -0.468000 8.080353 0.997565 0.317615
93 5 7 0.275000 8.903300 1.491440 0.334039
94 5 8 -0.100000 4.512390 2.998449 1.041079
95 5 9 0.033000 3.526540 3.357817 1.248956
96 5 9 0.033000 5.232732 3.696613 1.410961
97 5 9 0.033000 4.635138 2.886457 -0.016504
98 5 8 -0.100000 3.448025 0.941376 1.671808
99 5 9 0.033000 3.127046 0.817222 0.658369
100 5 9 0.033000 3.599698 -0.019778 2.117256
101 5 9 0.033000 2.701066 1.475141 2.220629
102 5 8 -0.100000 5.124720 1.909963 3.090531
103 5 9 0.033000 4.274911 2.185929 3.678370
104 5 9 0.033000 5.548402 1.006055 3.478086
105 5 9 0.033000 5.855238 2.690486 3.129892
106 6 1 -0.131000 2.445637 12.379211 2.756352
107 6 2 0.068000 2.938877 11.595775 3.294212
108 6 2 0.068000 1.638506 12.762758 3.346081
109 6 3 0.791000 1.918915 11.848537 1.490710
110 6 4 0.132000 3.448867 13.510210 2.461612
111 6 5 0.034000 2.955063 14.292995 1.924259
112 6 5 0.034000 4.255434 13.126012 1.872390
113 6 6 -0.468000 3.961257 14.026444 3.692814
114 6 7 0.275000 4.586417 14.731239 3.508795
115 6 8 -0.100000 3.026956 11.321748 0.681336
116 6 9 0.033000 2.654175 10.581414 0.005171
117 6 9 0.033000 3.474412 12.119094 0.127114
118 6 9 0.033000 3.759745 10.879941 1.324700
119 6 8 -0.100000 0.961515 10.769177 1.772600
120 6 9 0.033000 1.463215 9.971085 2.279402
121 6 9 0.033000 0.173269 11.143997 2.391812
122 6 9 0.033000 0.551695 10.407299 0.853280
123 6 8 -0.100000 1.241550 12.924014 0.752552
124 6 9 0.033000 0.614282 12.498240 -0.001861
125 6 9 0.033000 0.644664 13.500518 1.429401
126 6 9 0.033000 1.971874 13.557457 0.294516
127 7 1 -0.131000 2.524783 12.454277 12.440390
128 7 2 0.068000 2.212669 11.863737 11.603613
129 7 2 0.068000 1.751685 13.150527 12.693186
130 7 3 0.791000 3.750433 13.187672 12.092805
131 7 4 0.132000 2.800510 11.533757 13.644183
132 7 5 0.034000 3.112140 12.124754 14.480216
133 7 5 0.034000 3.573124 10.837965 13.390642
134 7 6 -0.468000 1.608212 10.820319 13.982310
135 7 7 0.275000 1.780371 10.246761 14.732522
136 7 8 -0.100000 4.811585 12.231810 11.745484
137 7 9 0.033000 5.524406 12.707386 11.105194
138 7 9 0.033000 5.298257 11.899397 12.637555
139 7 9 0.033000 4.382815 11.391577 11.239266
140 7 8 -0.100000 3.486708 14.066033 10.943881
141 7 9 0.033000 3.208592 13.472416 10.097848
142 7 9 0.033000 2.689590 14.738401 11.184237
143 7 9 0.033000 4.368519 14.625867 10.713553
144 7 8 -0.100000 4.178655 13.998568 13.241466
145 7 9 0.033000 4.873289 14.742654 12.913277
146 7 9 0.033000 3.325728 14.475183 13.679770
147 7 9 0.033000 4.646645 13.368604 13.968481
148 8 1 -0.131000 1.588330 5.422648 12.997750
149 8 2 0.068000 0.674548 5.389641 13.554763
150 8 2 0.068000 1.421892 5.930664 12.070083
151 8 3 0.791000 2.049209 4.052589 12.730488
152 8 4 0.132000 2.658311 6.175494 13.810687
153 8 5 0.034000 3.571245 6.208312 13.253179
154 8 5 0.034000 2.823901 5.667288 14.737859
155 8 6 -0.468000 2.209973 7.508272 14.070677
156 8 7 0.275000 2.876983 7.977164 14.577296
157 8 8 -0.100000 2.277369 3.355163 14.004022
158 8 9 0.033000 2.188322 2.299833 13.853666
159 8 9 0.033000 3.257526 3.583331 14.365093
160 8 9 0.033000 1.549948 3.675488 14.721198
161 8 8 -0.100000 1.027664 3.334556 11.954619
162 8 9 0.033000 0.125033 3.271334 12.526249
163 8 9 0.033000 0.835532 3.861835 11.043407
164 8 9 0.033000 1.378212 2.349377 11.729686
165 8 8 -0.100000 3.303471 4.097987 11.965560
166 8 9 0.033000 3.483903 3.142636 11.519873
167 8 9 0.033000 3.226946 4.841021 11.198227
168 8 9 0.033000 4.112298 4.345295 12.620585
169 9 1 -0.131000 13.745046 11.989051 4.813623
170 9 2 0.068000 14.718751 12.433892 4.794533
171 9 2 0.068000 13.423793 11.791840 3.811498
172 9 3 0.791000 12.798267 12.909440 5.459684
173 9 4 0.132000 13.799225 10.668546 5.604717
174 9 5 0.034000 12.825710 10.224393 5.623107
175 9 5 0.034000 14.120668 10.866445 6.606142
176 9 6 -0.468000 14.720240 9.773201 4.976237
177 9 7 0.275000 14.753774 8.950387 5.469469
178 9 8 -0.100000 13.239518 13.180361 6.835274
179 9 9 0.033000 12.848524 14.122925 7.156140
180 9 9 0.033000 12.884481 12.407050 7.482636
181 9 9 0.033000 14.309213 13.208809 6.867453
182 9 8 -0.100000 12.746960 14.169524 4.704269
183 9 9 0.033000 13.712484 14.631201 4.715189
184 9 9 0.033000 12.460369 13.968012 3.693079
185 9 9 0.033000 12.031783 14.825618 5.153845
186 9 8 -0.100000 11.461544 12.298825 5.485569
187 9 9 0.033000 10.728201 13.054276 5.673690
188 9 9 0.033000 11.262371 11.835492 4.540896
189 9 9 0.033000 11.421094 11.560935 6.259070
190 10 1 -0.131000 11.753461 1.861135 9.948566
191 10 2 0.068000 11.398206 1.474216 9.015594
192 10 2 0.068000 11.374554 2.852406 10.090552
193 10 3 0.791000 13.223028 1.895053 9.937414
194 10 4 0.132000 11.268901 0.956759 11.097394
195 10 5 0.034000 11.624136 1.344293 12.029578
196 10 5 0.034000 11.647788 -0.033898 10.954620
197 10 6 -0.468000 9.839323 0.923763 11.108243
198 10 7 0.275000 9.537672 0.360094 11.824280
199 10 8 -0.100000 13.743099 0.534259 9.742183
200 10 9 0.033000 14.721976 0.584605 9.313786
201 10 9 0.033000 13.790854 0.031954 10.684811
202 10 9 0.033000 13.093347 -0.004657 9.083789
203 10 8 -0.100000 13.684926 2.758306 8.840811
204 10 9 0.033000 13.359114 2.351891 7.905838
205 10 9 0.033000 13.277083 3.740075 8.963447
206 10 9 0.033000 14.753124 2.811356 8.854840
207 10 8 -0.100000 13.710625 2.426512 11.218098
208 10 9 0.033000 14.731154 2.728823 11.113141
209 10 9 0.033000 13.116155 3.270061 11.504082
210 10 9 0.033000 13.637787 1.668929 11.969885
211 11 10 -0.800000 2.296786 9.197490 12.666850
212 12 10 -0.800000 11.012620 13.407888 8.234902
213 13 10 -0.800000 5.509392 9.573406 4.246041
214 14 10 -0.800000 0.925572 3.370684 1.139669
215 15 10 -0.800000 12.491860 2.330639 0.055538
216 16 10 -0.800000 10.764077 4.337641 13.270282
217 17 10 -0.800000 1.205733 10.130010 4.617969
218 18 10 -0.800000 6.881920 13.596493 13.959460
219 19 10 -0.800000 10.014637 14.728258 2.427266
220 20 10 -0.800000 0.687092 13.253423 9.813620
221 21 11 0.124000 7.087952 6.431549 6.557615
222 21 12 -0.322000 6.599316 7.597691 7.158738
223 21 13 -0.453000 6.519552 5.967871 5.306581
224 21 13 -0.453000 8.162438 5.687438 7.186056
225 21 14 0.276000 8.387983 4.882518 6.622878
226 21 15 0.276000 8.759040 5.707022 7.998673
227 21 14 0.276000 6.985774 5.121868 5.018740
228 21 15 0.276000 5.813355 6.209836 4.628787
229 22 11 0.124000 13.734890 6.535414 11.358629
230 22 12 -0.322000 14.546625 7.665282 11.202150
231 22 13 -0.453000 13.092730 5.938444 10.203458
232 22 13 -0.453000 13.536324 5.962163 12.675867
233 22 14 0.276000 12.929239 5.160641 12.605532
234 22 15 0.276000 13.803238 6.098274 13.638621
235 22 14 0.276000 12.550630 5.140397 10.495323
236 22 15 0.276000 13.007877 6.055747 9.205608
237 23 11 0.124000 10.116867 4.474386 9.264109
238 23 12 -0.322000 9.979220 5.680191 9.962027
239 23 13 -0.453000 11.116612 4.350572 8.220873
240 23 13 -0.453000 9.259684 3.349332 9.584500
241 23 14 0.276000 9.493135 2.569134 8.990590
242 23 15 0.276000 8.507981 3.087566 10.203441
243 23 14 0.276000 11.078029 3.423696 7.826730
244 23 15 0.276000 11.837442 4.882783 7.758466
245 24 11 0.124000 6.165687 6.598789 1.330607
246 24 12 -0.322000 5.736747 6.527041 -0.000130
247 24 13 -0.453000 6.886098 5.487244 1.921061
248 24 13 -0.453000 5.889535 7.784646 2.118418
249 24 14 0.276000 6.266160 7.667152 3.045934
250 24 15 0.276000 5.446298 8.687512 2.047437
251 24 14 0.276000 7.116730 5.706312 2.877489
252 24 15 0.276000 7.233130 4.568285 1.693576
253 25 11 0.124000 13.731756 8.556795 8.554359
254 25 12 -0.322000 14.743650 7.704752 9.012720
255 25 13 -0.453000 12.623405 8.019822 7.788606
256 25 13 -0.453000 13.792075 9.976242 8.845381
257 25 14 0.276000 12.990196 10.436062 8.443520
258 25 15 0.276000 14.368926 10.656406 9.315791
259 25 14 0.276000 11.992733 8.766251 7.541558
260 25 15 0.276000 12.273508 7.148557 7.420999
261 26 11 0.124000 11.025054 6.334505 14.722294
262 26 12 -0.322000 12.039365 5.369565 14.730343
263 26 13 -0.453000 11.365154 7.744085 14.746318
264 26 13 -0.453000 9.634418 5.924327 14.689934
265 26 14 0.276000 9.043205 6.740661 14.688367
266 26 15 0.276000 9.061935 5.094587 14.668481
267 26 14 0.276000 10.520393 8.293830 14.736490
268 26 15 0.276000 12.165132 8.357402 14.769576
269 27 11 0.124000 9.785351 10.220514 3.674428
270 27 12 -0.322000 9.511917 11.525162 3.246495
271 27 13 -0.453000 8.698452 9.341113 4.059740
272 27 13 -0.453000 11.155451 9.748672 3.732334
273 27 14 0.276000 11.169032 8.795314 4.059232
274 27 15 0.276000 12.098980 10.056574 3.554529
275 27 14 0.276000 9.071975 8.447462 4.338674
276 27 15 0.276000 7.693595 9.325825 4.141565
277 28 11 0.124000 4.742069 9.353804 10.504991
278 28 12 -0.322000 3.375330 9.495184 10.773383
279 28 13 -0.453000 5.646376 8.924563 11.554345
280 28 13 -0.453000 5.253315 9.636614 9.177660
281 28 14 0.276000 6.249562 9.484380 9.161765
282 28 15 0.276000 4.944197 9.934795 8.265410
283 28 14 0.276000 6.585041 8.876642 11.190273
284 28 15 0.276000 5.648953 8.658091 12.526791
285 29 11 0.124000 4.327785 3.571165 5.383487
286 29 12 -0.322000 4.570685 4.299441 4.212754
287 29 13 -0.453000 5.256120 3.653946 6.494569
288 29 13 -0.453000 3.147876 2.734097 5.484949
289 29 14 0.276000 3.130364 2.285960 6.387613
290 29 15 0.276000 2.339204 2.451051 4.953348
291 29 14 0.276000 4.929756 3.071054 7.249327
292 29 15 0.276000 6.119271 4.100334 6.763591
293 30 11 0.124000 5.006230 0.861295 12.660031
294 30 12 -0.322000 3.717183 0.588871 12.186596
295 30 13 -0.453000 6.163275 0.477082 11.874672
296 30 13 -0.453000 5.184270 1.527662 13.935734
297 30 14 0.276000 6.168443 1.643546 14.119890
298 30 15 0.276000 4.651541 1.913663 14.699847
299 30 14 0.276000 7.004026 0.746873 12.360767
300 30 15 0.276000 6.406890 0.029980 11.004375
301 31 11 0.124000 3.400481 9.402667 4.847152
302 31 12 -0.322000 3.353979 9.440050 3.448424
303 31 13 -0.453000 3.107389 10.597841 5.614498
304 31 13 -0.453000 3.741735 8.168777 5.528489
305 31 14 0.276000 3.728187 8.320240 6.524889
306 31 15 0.276000 3.988036 7.209853 5.337530
307 31 14 0.276000 3.186770 10.393454 6.598297
308 31 15 0.276000 2.850658 11.565149 5.491742
309 32 11 0.124000 12.373938 12.748932 13.190867
310 32 12 -0.322000 13.498206 12.635371 12.364353
311 32 13 -0.453000 11.483079 13.884708 13.051071
312 32 13 -0.453000 12.100378 11.730772 14.186697
313 32 14 0.276000 11.259340 11.968928 14.688568
314 32 15 0.276000 12.471213 10.864008 14.544281
315 32 14 0.276000 10.732474 13.807320 13.719308
316 32 15 0.276000 11.364400 14.726001 12.508111
317 33 11 0.124000 9.535584 8.162520 7.106501
318 33 12 -0.322000 8.571595 7.895140 8.085906
319 33 13 -0.453000 9.865484 9.533865 6.769246
320 33 13 -0.453000 10.204102 7.068106 6.429374
321 33 14 0.276000 10.861665 7.437986 5.760990
322 33 15 0.276000 10.230259 6.060455 6.404449
323 33 14 0.276000 10.572653 9.542519 6.051072
324 33 15 0.276000 9.623118 10.481546 7.013837
325 34 11 0.124000 9.349030 0.280353 5.523035
326 34 12 -0.322000 7.981653 -0.008952 5.441908
327 34 13 -0.453000 10.005966 0.321432 6.815284
328 34 13 -0.453000 10.108307 0.538912 4.314810
329 34 14 0.276000 11.068718 0.727768 4.555392
330 34 15 0.276000 9.995543 0.592698 3.314282
331 34 14 0.276000 10.981370 0.542148 6.689555
332 34 15 0.276000 9.812047 0.202758 7.797617
333 35 11 0.124000 5.573758 3.216325 9.607735
334 35 12 -0.322000 5.219037 4.260269 10.470494
335 35 13 -0.453000 4.786397 1.998745 9.580834
336 35 13 -0.453000 6.728508 3.352678 8.741062
337 35 14 0.276000 6.837343 2.514541 8.191863
338 35 15 0.276000 7.458769 4.006578 8.504847
339 35 14 0.276000 5.179746 1.358956 8.908612
340 35 15 0.276000 3.976577 1.578986 10.010554
341 36 11 0.124000 8.965278 3.612623 4.773563
342 36 12 -0.322000 8.808124 4.670949 3.870652
343 36 13 -0.453000 7.806561 2.866056 5.224310
344 36 13 -0.453000 10.286761 3.263067 5.257973
345 36 14 0.276000 10.216333 2.484842 5.894639
346 36 15 0.276000 11.252529 3.539164 5.170065
347 36 14 0.276000 8.099474 2.145992 5.865908
348 36 15 0.276000 6.805546 2.827326 5.109708
349 37 11 0.124000 5.740251 6.529105 10.548114
350 37 12 -0.322000 5.707387 6.538410 11.947698
351 37 13 -0.453000 6.890329 5.983177 9.853533
352 37 13 -0.453000 4.624210 7.065396 9.793127
353 37 14 0.276000 4.813462 6.979539 8.806847
354 37 15 0.276000 3.722015 7.495536 9.926130
355 37 14 0.276000 6.747602 6.055862 8.858403
356 37 15 0.276000 7.785153 5.555125 10.034437
357 38 11 0.124000 7.654612 3.668833 13.142790
358 38 12 -0.322000 8.106012 2.362947 13.368396
359 38 13 -0.453000 8.405825 4.555951 12.275690
360 38 13 -0.453000 6.435876 4.134240 13.776225
361 38 14 0.276000 6.260644 5.089511 13.506616
362 38 15 0.276000 5.705419 3.820588 14.396482
363 38 14 0.276000 7.942002 5.449442 12.225905
364 38 15 0.276000 9.237525 4.576712 11.706033
365 39 11 0.124000 1.993300 14.039685 5.668592
366 39 12 -0.322000 1.980148 14.656674 4.411949
367 39 13 -0.453000 0.886822 13.193682 6.072507
368 39 13 -0.453000 3.113400 14.246662 6.566199
369 39 14 0.276000 2.959616 13.732792 7.419560
370 39 15 0.276000 3.994756 14.733355 6.621022
371 39 14 0.276000 1.059225 12.834071 6.998193
372 39 15 0.276000 0.002516 12.845371 5.735837
373 40 11 0.124000 7.703768 12.898976 11.311604
374 40 12 -0.322000 7.823356 14.203745 11.804835
375 40 13 -0.453000 7.499562 11.793460 12.227734
376 40 13 -0.453000 7.784114 12.653125 9.884627
377 40 14 0.276000 7.678619 11.666566 9.707119
378 40 15 0.276000 7.910349 13.140300 9.010905
379 40 14 0.276000 7.435754 10.932839 11.706968
380 40 15 0.276000 7.400149 11.598926 13.212081

Bonds

1 1 11 10
2 1 12 10
3 1 13 10
4 1 15 14
5 1 16 14
6 1 17 14
7 1 19 18
8 1 20 18
9 1 21 18
10 2 10 4
11 2 14 4
12 2 18 4
13 3 4 1
14 4 1 2
15 4 1 3
16 5 1 5
17 6 5 6
18 6 5 7
19 7 5 8
20 8 8 9
21 1 32 31
22 1 33 31
23 1 34 31
24 1 36 35
25 1 37 35
26 1 38 35
27 1 40 39
28 1 41 39
29 1 42 39
30 2 31 25
31 2 35 25
32 2 39 25
33 3 25 22
34 4 22 23
35 4 22 24
36 5 22 26
37 6 26 27
38 6 26 28
39 7 26 29
40 8 29 30
41 1 53 52
42 1 54 52
43 1 55 52
44 1 57 56
45 1 58 56
46 1 59 56
47 1 61 60
48 1 62 60
49 1 63 60
50 2 52 46
51 2 56 46
52 2 60 46
53 3 46 43
54 4 43 44
55 4 43 45
56 5 43 47
57 6 47 48
58 6 47 49
59 7 47 50
60 8 50 51
61 1 74 73
62 1 75 73
63 1 76 73
64 1 78 77
65 1 79 77
66 1 80 77
67 1 82 81
68 1 83 81
69 1 84 81
70 2 73 67
71 2 77 67
72 2 81 67
73 3 67 64
74 4 64 65
75 4 64 66
76 5 64 68
77 6 68 69
78 6 68 70
79 7 68 71
80 8 71 72
81 1 95 94
82 1 96 94
83 1 97 94
84 1 99 98
85 1 100 98
86 1 101 98
87 1 103 102
88 1 104 102
89 1 105 102
90 2 94 88
91 2 98 88
92 2 102 88
93 3 88 85
94 4 85 86
95 4 85 87
96 5 85 89
97 6 89 90
98 6 89 91
99 7 89 92
100 8 92 93
101 1 116 115
102 1 117 115
103 1 118 115
104 1 120 119
105 1 121 119
106 1 122 119
107 1 124 123
108 1 125 123
109 1 126 123
110 2 115 109
111 2 119 109
112 2 123 109
113 3 109 106
114 4 106 107
115 4 106 108
116 5 106 110
117 6 110 111
118 6 110 112
119 7 110 113
120 8 113 114
121 1 137 136
122 1 138 136
123 1 139 136
124 1 141 140
125 1 142 140
126 1 143 140
127 1 145 144
128 1 146 144
129 1 147 144
130 2 136 130
131 2 140 130
132 2 144 130
133 3 130 127
134 4 127 128
135 4 127 129
136 5 127 131
137 6 131 132
138 6 131 133
139 7 131 134
140 8 134 135
141 1 158 157
142 1 159 157
143 1 160 157
144 1 162 161
145 1 163 161
146 1 164 161
147 1 166 165
148 1 167 165
149 1 168 165
150 2 157 151
151 2 161 151
152 2 165 151
153 3 151 148
154 4 148 149
155 4 148 150
156 5 148 152
157 6 152 153
158 6 152 154
159 7 152 155
160 8 155 156
161 1 179 178
162 1 180 178
163 1 181 178
164 1 183 182
165 1 184 182
166 1 185 182
167 1 187 186
168 1 188 186
169 1 189 186
170 2 178 172
171 2 182 172
172 2 186 172
173 3 172 169
174 4 169 170
175 4 169 171
176 5 169 173
177 6 173 174
178 6 173 175
179 7 173 176
180 8 176 177
181 1 200 199
182 1 201 199
183 1 202 199
184 1 204 203
185 1 205 203
186 1 206 203
187 1 208 207
188 1 209 207
189 1 210 207
190 2 199 193
191 2 203 193
192 2 207 193
193 3 193 190
194 4 190 191
195 4 190 192
196 5 190 194
197 6 194 195
198 6 194 196
199 7 194 197
200 8 197 198
201 9 221 222
202 10 221 223
203 10 221 224
204 11 223 227
205 11 223 228
206 11 224 225
207 11 224 226
208 9 229 230
209 10 229 231
210 10 229 232
211 11 231 235
212 11 231 236
213 11 232 233
214 11 232 234
215 9 237 238
216 10 237 239
217 10 237 240
218 11 239 243
219 11 239 244
220 11 240 241
221 11 240 242
222 9 245 246
223 10 245 247
224 10 245 248
225 11 247 251
226 11 247 252
227 11 248 249
228 11 248 250
229 9 253 254
230 10 253 255
231 10 253 256
232 11 255 259
233 11 255 260
234 11 256 257
235 11 256 258
236 9 261 262
237 10 261 263
238 10 261 264
239 11 263 267
240 11 263 268
241 11 264 265
242 11 264 266
243 9 269 270
244 10 269 271
245 10 269 272
246 11 271 275
247 11 271 276
248 11 272 273
249 11 272 274
250 9 277 278
251 10 277 279
252 10 277 280
253 11 279 283
254 11 279 284
255 11 280 281
256 11 280 282
257 9 285 286
258 10 285 287
259 10 285 288
260 11 287 291
261 11 287 292
262 11 288 289
263 11 288 290
264 9 293 294
265 10 293 295
266 10 293 296
267 11 295 299
268 11 295 300
269 11 296 297
270 11 296 298
271 9 301 302
272 10 301 303
273 10 301 304
274 11 303 307
275 11 303 308
276 11 304 305
277 11 304 306
278 9 309 310
279 10 309 311
280 10 309 312
281 11 311 315
282 11 311 316
283 11 312 313
284 11 312 314
285 9 317 318
286 10 317 319
287 10 317 320
288 11 319 323
289 11 319 324
290 11 320 321
291 11 320 322
292 9 325 326
293 10 325 327
294 10 325 328
295 11 327 331
296 11 327 332
297 11 328 329
298 11 328 330
299 9 333 334
300 10 333 335
301 10 333 336
302 11 335 339
303 11 335 340
304 11 336 337
305 11 336 338
306 9 341 342
307 10 341 343
308 10 341 344
309 11 343 347
310 11 343 348
311 11 344 345
312 11 344 346
313 9 349 350
314 10 349 351
315 10 349 352
316 11 351 355
317 11 351 356
318 11 352 353
319 11 352 354
320 9 357 358
321 10 357 359
322 10 357 360
323 11 359 363
324 11 359 364
325 11 360 361
326 11 360 362
327 9 365 366
328 10 365 367
329 10 365 368
330 11 367 371
331 11 367 372
332 11 368 369
333 11 368 370
334 9 373 374
335 10 373 375
336 10 373 376
337 11 375 379
338 11 375 380
339 11 376 377
340 11 376 378

Angles

1 1 11 10 12
2 1 11 10 13
3 1 12 10 13
4 1 15 14 16
5 1 15 14 17
6 1 16 14 17
7 1 19 18 20
8 1 19 18 21
9 1 20 18 21
10 2 11 10 4
11 2 12 10 4
12 2 13 10 4
13 2 15 14 4
14 2 16 14 4
15 2 17 14 4
16 2 19 18 4
17 2 20 18 4
18 2 21 18 4
19 3 10 4 1
20 3 14 4 1
21 3 18 4 1
22 4 4 1 2
23 4 4 1 3
24 5 4 1 5
25 6 1 5 6
26 6 1 5 7
27 7 1 5 8
28 8 2 1 5
29 8 3 1 5
30 9 6 5 8
31 9 7 5 8
32 10 5 8 9
33 11 10 4 14
34 11 10 4 18
35 11 14 4 18
36 12 2 1 3
37 13 6 5 7
38 1 32 31 33
39 1 32 31 34
40 1 33 31 34
41 1 36 35 37
42 1 36 35 38
43 1 37 35 38
44 1 40 39 41
45 1 40 39 42
46 1 41 39 42
47 2 32 31 25
48 2 33 31 25
49 2 34 31 25
50 2 36 35 25
51 2 37 35 25
52 2 38 35 25
53 2 40 39 25
54 2 41 39 25
55 2 42 39 25
56 3 31 25 22
57 3 35 25 22
58 3 39 25 22
59 4 25 22 23
60 4 25 22 24
61 5 25 22 26
62 6 22 26 27
63 6 22 26 28
64 7 22 26 29
65 8 23 22 26
66 8 24 22 26
67 9 27 26 29
68 9 28 26 29
69 10 26 29 30
70 11 31 25 35
71 11 31 25 39
72 11 35 25 39
73 12 23 22 24
74 13 27 26 28
75 1 53 52 54
76 1 53 52 55
77 1 54 52 55
78 1 57 56 58
79 1 57 56 59
80 1 58 56 59
81 1 61 60 62
82 1 61 60 63
83 1 62 60 63
84 2 53 52 46
85 2 54 52 46
86 2 55 52 46
87 2 57 56 46
88 2 58 56 46
89 2 59 56 46
90 2 61 60 46
91 2 62 60 46
92 2 63 60 46
93 3 52 46 43
94 3 56 46 43
95 3 60 46 43
96 4 46 43 44
97 4 46 43 45
98 5 46 43 47
99 6 43 47 48
100 6 43 47 49
101 7 43 47 50
102 8 44 43 47
103 8 45 43 47
104 9 48 47 50
105 9 49 47 50
106 10 47 50 51
107 11 52 46 56
108 11 52 46 60
109 11 56 46 60
110 12 44 43 45
111 13 48 47 49
112 1 74 73 75
113 1 74 73 76
114 1 75 73 76
115 1 78 77 79
116 1 78 77 80
117 1 79 77 80
118 1 82 81 83
119 1 82 81 84
120 1 83 81 84
121 2 74 73 67
122 2 75 73 67
123 2 76 73 67
124 2 78 77 67
125 2 79 77 67
126 2 80 77 67
127 2 82 81 67
128 2 83 81 67
129 2 84 81 67
130 3 73 67 64
131 3 77 67 64
132 3 81 67 64
133 4 67 64 65
134 4 67 64 66
135 5 67 64 68
136 6 64 68 69
137 6 64 68 70
138 7 64 68 71
139 8 65 64 68
140 8 66 64 68
141 9 69 68 71
142 9 70 68 71
143 10 68 71 72
144 11 73 67 77
145 11 73 67 81
146 11 77 67 81
147 12 65 64 66
148 13 69 68 70
149 1 95 94 96
150 1 95 94 97
151 1 96 94 97
152 1 99 98 100
153 1 99 98 101
154 1 100 98 101
155 1 103 102 104
156 1 103 102 105
157 1 104 102 105
158 2 95 94 88
159 2 96 94 88
160 2 97 94 88
161 2 99 98 88
162 2 100 98 88
163 2 101 98 88
164 2 103 102 88
165 2 104 102 88
166 2 105 102 88
167 3 94 88 85
168 3 98 88 85
169 3 102 88 85
170 4 88 85 86
171 4 88 85 87
172 5 88 85 89
173 6 85 89 90
174 6 85 89 91
175 7 85 89 92
176 8 86 85 89
177 8 87 85 89
178 9 90 89 92
179 9 91 89 92
180 10 89 92 93
181 11 94 88 98
182 11 94 88 102
183 11 98 88 102
184 12 86 85 87
185 13 90 89 91
186 1 116 115 117
187 1 116 115 118
188 1 117 115 118
189 1 120 119 121
190 1 120 119 122
191 1 121 119 122
192 1 124 123 125
193 1 124 123 126
194 1 125 123 126
195 2 116 115 109
196 2 117 115 109
197 2 118 115 109
198 2 120 119 109
199 2 121 119 109
200 2 122 119 109
201 2 124 123 109
202 2 125 123 109
203 2 126 123 109
204 3 115 109 106
205 3 119 109 106
206 3 123 109 106
207 4 109 106 107
208 4 109 106 108
209 5 109 106 110
210 6 106 110 111
211 6 106 110 112
212 7 106 110 113
213 8 107 106 110
214 8 108 106 110
215 9 111 110 113
216 9 112 110 113
217 10 110 113 114
218 11 115 109 119
219 11 115 109 123
220 11 119 109 123
221 12 107 106 108
222 13 111 110 112
223 1 137 136 138
224 1 137 136 139
225 1 138 136 139
226 1 141 140 142
227 1 141 140 143
228 1 142 140 143
229 1 145 144 146
230 1 145 144 147
231 1 146 144 147
232 2 137 136 130
233 2 138 136 130
234 2 139 136 130
235 2 141 140 130
236 2 142 140 130
237 2 143 140 130
238 2 145 144 130
239 2 146 144 130
240 2 147 144 130
241 3 136 130 127
242 3 140 130 127
243 3 144 130 127
244 4 130 127 128
245 4 130 127 129
246 5 130 127 131
247 6 127 131 132
248 6 127 131 133
249 7 127 131 134
250 8 128 127 131
251 8 129 127 131
252 9 132 131 134
253 9 133 131 134
254 10 131 134 135
255 11 136 130 140
256 11 136 130 144
257 11 140 130 144
258 12 128 127 129
259 13 132 131 133
260 1 158 157 159
261 1 158 157 160
262 1 159 157 160
263 1 162 161 163
264 1 162 161 164
265 1 163 161 164
266 1 166 165 167
267 1 166 165 168
268 1 167 165 168
269 2 158 157 151
270 2 159 157 151
271 2 160 157 151
272 2 162 161 151
273 2 163 161 151
274 2 164 161 151
275 2 166 165 151
276 2 167 165 151
277 2 168 165 151
278 3 157 151 148
279 3 161 151 148
280 3 165 151 148
281 4 151 148 149
282 4 151 148 150
283 5 151 148 152
284 6 148 152 153
285 6 148 152 154
286 7 148 152 155
287 8 149 148 152
288 8 150 148 152
289 9 153 152 155
290 9 154 152 155
291 10 152 155 156
292 11 157 151 161
293 11 157 151 165
294 11 161 151 165
295 12 149 148 150
296 13 153 152 154
297 1 179 178 180
298 1 179 178 181
299 1 180 178 181
300 1 183 182 184
301 1 183 182 185
302 1 184 182 185
303 1 187 186 188
304 1 187 186 189
305 1 188 186 189
306 2 179 178 172
307 2 180 178 172
308 2 181 178 172
309 2 183 182 172
310 2 184 182 172
311 2 185 182 172
312 2 187 186 172
313 2 188 186 172
314 2 189 186 172
315 3 178 172 169
316 3 182 172 169
317 3 186 172 169
318 4 172 169 170
319 4 172 169 171
320 5 172 169 173
321 6 169 173 174
322 6 169 173 175
323 7 169 173 176
324 8 170 169 173
325 8 171 169 173
326 9 174 173 176
327 9 175 173 176
328 10 173 176 177
329 11 178 172 182
330 11 178 172 186
331 11 182 172 186
332 12 170 169 171
333 13 174 173 175
334 1 200 199 201
335 1 200 199 202
336 1 201 199 202
337 1 204 203 205
338 1 204 203 206
339 1 205 203 206
340 1 208 207 209
341 1 208 207 210
342 1 209 207 210
343 2 200 199 193
344 2 201 199 193
345 2 202 199 193
346 2 204 203 193
347 2 205 203 193
348 2 206 203 193
349 2 208 207 193
350 2 209 207 193
351 2 210 207 193
352 3 199 193 190
353 3 203 193 190
354 3 207 193 190
355 4 193 190 191
356 4 193 190 192
357 5 193 190 194
358 6 190 194 195
359 6 190 194 196
360 7 190 194 197
361 8 191 190 194
362 8 192 190 194
363 9 195 194 197
364 9 196 194 197
365 10 194 197 198
366 11 199 193 203
367 11 199 193 207
368 11 203 193 207
369 12 191 190 192
370 13 195 194 196
371 14 222 221 223
372 14 222 221 224
373 15 221 223 227
374 15 221 223 228
375 15 221 224 225
376 15 221 224 226
377 16 223 221 224
378 17 225 224 226
379 17 227 223 228
380 14 230 229 231
381 14 230 229 232
382 15 229 231 235
383 15 229 231 236
384 15 229 232 233
385 15 229 232 234
386 16 231 229 232
387 17 233 232 234
388 17 235 231 236
389 14 238 237 239
390 14 238 237 240
391 15 237 239 243
392 15 237 239 244
393 15 237 240 241
394 15 237 240 242
395 16 239 237 240
396 17 241 240 242
397 17 243 239 244
398 14 246 245 247
399 14 246 245 248
400 15 245 247 251
401 15 245 247 252
402 15 245 248 249
403 15 245 248 250
404 16 247 245 248
405 17 249 248 250
406 17 251 247 252
407 14 254 253 255
408 14 254 253 256
409 15 253 255 259
410 15 253 255 260
411 15 253 256 257
412 15 253 256 258
413 16 255 253 256
414 17 257 256 258
415 17 259 255 260
416 14 262 261 263
417 14 262 261 264
418 15 261 263 267
419 15 261 263 268
420 15 261 264 265
421 15 261 264 266
422 16 263 261 264
423 17 265 264 266
424 17 267 263 268
425 14 270 269 271
426 14 270 269 272
427 15 269 271 275
428 15 269 271 276
429 15 269 272 273
430 15 269 272 274
431 16 271 269 272
432 17 273 272 274
433 17 275 271 276
434 14 278 277 279
435 14 278 277 280
436 15 277 279 283
437 15 277 279 284
438 15 277 280 281
439 15 277 280 282
440 16 279 277 280
441 17 281 280 282
442 17 283 279 284
443 14 286 285 287
444 14 286 285 288
445 15 285 287 291
446 15 285 287 292
447 15 285 288 289
448 15 285 288 290