LAMMPS data file for reline (OPLS-DES), built by build_data.py

380 atoms
340 bonds
550 angles
740 dihedrals

15 atom types
11 bond types
17 angle types
14 dihedral types

0.000000 24.000000 xlo xhi
0.000000 24.000000 ylo yhi
0.000000 24.000000 zlo zhi

Masses

1 12.0110
2 1.0080
3 14.0070
4 12.0110
5 1.0080
6 15.9990
7 1.0080
8 12.0110
9 1.0080
10 35.4500
11 12.0110
12 15.9990
13 14.0070
14 1.0080
15 1.0080

Atoms  # full

1 1 1 -0.131000 16.750288 6.211001 5.364963
2 1 2 0.068000 17.229923 5.280208 5.141526
3 1 2 0.068000 16.806502 6.396979 6.417865
4 1 3 0.791000 15.340616 6.147289 4.953056
5 1 4 0.132000 17.457181 7.348531 4.604156
6 1 5 0.034000 16.977399 8.278556 4.828217
7 1 5 0.034000 17.400820 7.161785 3.551878
8 1 6 -0.468000 18.828494 7.410509 5.004855
9 1 7 0.275000 19.268735 8.119491 4.530558
10 1 8 -0.100000 15.263535 5.891669 3.507696
11 1 9 0.033000 14.326852 5.429589 3.276684
12 1 9 0.033000 15.346582 6.816117 2.976999
13 1 9 0.033000 16.062821 5.241236 3.217578
14 1 8 -0.100000 14.666465 5.061492 5.679459
15 1 9 0.033000 15.124029 4.127030 5.428628
16 1 9 0.033000 14.753617 5.228907 6.732845
17 1 9 0.033000 13.632616 5.038160 5.406202
18 1 8 -0.100000 14.682178 7.424993 5.260106
19 1 9 0.033000 13.621062 7.292176 5.243424
20 1 9 0.033000 14.984894 7.758150 6.231767
21 1 9 0.033000 14.962473 8.155405 4.530479
22 2 1 -0.131000 16.847966 17.114362 17.506209
23 2 2 0.068000 17.754985 16.920017 16.971516
24 2 2 0.068000 17.081684 17.528970 18.465285
25 2 3 0.791000 16.104560 15.858587 17.683058
26 2 4 0.132000 15.987058 18.113677 16.710780
27 2 5 0.034000 15.080811 18.307636 17.245978
28 2 5 0.034000 15.754113 17.698683 15.752210
29 2 6 -0.468000 16.710236 19.335281 16.538744
30 2 7 0.275000 16.173466 19.957820 16.043014
31 2 8 -0.100000 15.784028 15.289328 16.366413
32 2 9 0.033000 15.647600 14.232364 16.458468
33 2 9 0.033000 14.886027 15.734581 15.994281
34 2 9 0.033000 16.587680 15.487018 15.687331
35 2 8 -0.100000 16.926658 14.905239 18.442254
36 2 9 0.033000 17.817068 14.684442 17.890965
37 2 9 0.033000 17.190079 15.334144 19.386657
38 2 9 0.033000 16.372177 14.004567 18.601625
39 2 8 -0.100000 14.859587 16.125419 18.417354
40 2 9 0.033000 14.469518 15.207285 18.803054
41 2 9 0.033000 15.059805 16.796422 19.227553
42 2 9 0.033000 14.143816 16.568566 17.757268
43 3 1 -0.131000 2.688146 14.017288 7.078304
44 3 2 0.068000 2.217972 14.183069 6.130779
45 3 2 0.068000 3.188519 14.911413 7.388976
46 3 3 0.791000 3.665322 12.925892 6.956316
47 3 4 0.132000 1.620714 13.637252 8.121694
48 3 5 0.034000 2.091388 13.471995 9.068529
49 3 5 0.034000 1.120841 12.743652 7.810333
50 3 6 -0.468000 0.670128 14.698950 8.240362
51 3 7 0.275000 0.005064 14.461812 8.890654
52 3 8 -0.100000 2.978386 11.698570 6.529527
53 3 9 0.033000 3.674681 11.053063 6.036828
54 3 9 0.033000 2.572951 11.200934 7.384583
55 3 9 0.033000 2.186267 11.949704 5.854568
56 3 8 -0.100000 4.683811 13.289125 5.960406
57 3 9 0.033000 4.217977 13.420522 5.005820
58 3 9 0.033000 5.159355 14.202110 6.252916
59 3 9 0.033000 5.414412 12.510450 5.897608
60 3 8 -0.100000 4.310945 12.698584 8.257028
61 3 9 0.033000 5.207099 12.132106 8.115962
62 3 9 0.033000 4.551228 13.640719 8.705804
63 3 9 0.033000 3.644409 12.159570 8.897039
64 4 1 -0.131000 10.626524 22.476888 9.625643
65 4 2 0.068000 10.919211 23.493924 9.787885
66 4 2 0.068000 9.557926 22.410643 9.617859
67 4 3 0.791000 11.161978 21.634627 10.704895
68 4 4 0.132000 11.180870 21.992645 8.272607
69 4 5 0.034000 10.887671 20.976145 8.111037
70 4 5 0.034000 12.248957 22.059426 8.281063
71 4 6 -0.468000 10.659986 22.811988 7.222723
72 4 7 0.275000 11.005631 22.509960 6.379672
73 4 8 -0.100000 12.628916 21.725868 10.715709
74 4 9 0.033000 12.993303 21.496695 11.694975
75 4 9 0.033000 13.034758 21.031088 10.011641
76 4 9 0.033000 12.926313 22.718905 10.448269
77 4 8 -0.100000 10.632598 22.097224 11.995963
78 4 9 0.033000 10.954706 23.102279 12.173758
79 4 9 0.033000 9.563126 22.064733 11.975455
80 4 9 0.033000 10.993950 21.462412 12.777305
81 4 8 -0.100000 10.759874 20.238526 10.482264
82 4 9 0.033000 10.883065 19.683369 11.388086
83 4 9 0.033000 9.732755 20.206561 10.181002
84 4 9 0.033000 11.369097 19.809675 9.714570
85 5 1 -0.131000 10.194392 7.115639 3.563196
86 5 2 0.068000 10.507122 8.114704 3.338654
87 5 2 0.068000 11.034734 6.455636 3.495572
88 5 3 0.791000 9.163762 6.696991 2.602241
89 5 4 0.132000 9.616744 7.066909 4.990237
90 5 5 0.034000 9.304661 6.067978 5.214028
91 5 5 0.034000 8.777049 7.727046 5.057109
92 5 6 -0.468000 10.619330 7.474165 5.925044
93 5 7 0.275000 10.259039 7.443689 6.814249
94 5 8 -0.100000 8.010322 7.603268 2.694919
95 5 9 0.033000 7.475057 7.595154 1.768807
96 5 9 0.033000 7.364969 7.279821 3.483615
97 5 9 0.033000 8.352992 8.596617 2.899674
98 5 8 -0.100000 9.715599 6.743687 1.240480
99 5 9 0.033000 9.995759 7.749150 1.003720
100 5 9 0.033000 10.576998 6.111320 1.182595
101 5 9 0.033000 8.976980 6.405073 0.544895
102 5 8 -0.100000 8.734732 5.325371 2.910367
103 5 9 0.033000 8.222499 4.914068 2.066368
104 5 9 0.033000 9.592568 4.724876 3.134596
105 5 9 0.033000 8.078751 5.337859 3.755325
106 6 1 -0.131000 5.358329 16.869037 3.072223
107 6 2 0.068000 4.610518 16.316185 2.541674
108 6 2 0.068000 4.962899 17.189995 4.014015
109 6 3 0.791000 5.753587 18.043086 2.280845
110 6 4 0.132000 6.587675 15.972088 3.310323
111 6 5 0.034000 7.334544 16.525276 3.840898
112 6 5 0.034000 6.982163 15.651466 2.368558
113 6 6 -0.468000 6.203172 14.829986 4.080167
114 6 7 0.275000 6.969494 14.271229 4.228373
115 6 8 -0.100000 6.296126 17.602406 0.987863
116 6 9 0.033000 6.183959 18.385945 0.268319
117 6 9 0.033000 7.332572 17.364285 1.098389
118 6 9 0.033000 5.764653 16.734604 0.655377
119 6 8 -0.100000 4.579950 18.898757 2.053910
120 6 9 0.033000 3.846869 18.356882 1.493137
121 6 9 0.033000 4.163474 19.190405 2.995576
122 6 9 0.033000 4.874643 19.770534 1.508735
123 6 8 -0.100000 6.779945 18.802146 3.009384
124 6 9 0.033000 6.855035 19.786246 2.597320
125 6 9 0.033000 6.508689 18.867896 4.043237
126 6 9 0.033000 7.722644 18.304385 2.920088
127 7 1 -0.131000 5.623325 21.031356 20.186627
128 7 2 0.068000 5.959075 20.247086 20.833577
129 7 2 0.068000 4.625660 21.312162 20.455259
130 7 3 0.791000 5.641782 20.559936 18.794391
131 7 4 0.132000 6.555568 22.249164 20.329339
132 7 5 0.034000 6.219172 23.032708 19.682626
133 7 5 0.034000 7.552587 21.967633 20.060944
134 7 6 -0.468000 6.537614 22.707755 21.683691
135 7 7 0.275000 7.118666 23.466671 21.772294
136 7 8 -0.100000 7.011336 20.174178 18.425798
137 7 9 0.033000 6.978843 19.461440 17.628799
138 7 9 0.033000 7.552853 21.040004 18.109183
139 7 9 0.033000 7.499421 19.738867 19.273364
140 7 8 -0.100000 4.751905 19.397688 18.658769
141 7 9 0.033000 5.108098 18.601737 19.279325
142 7 9 0.033000 3.761905 19.668965 18.961349
143 7 9 0.033000 4.737865 19.076802 17.638528
144 7 8 -0.100000 5.180561 21.636524 17.906369
145 7 9 0.033000 4.911088 21.224495 16.956893
146 7 9 0.033000 4.328501 22.117687 18.341377
147 7 9 0.033000 5.964909 22.352186 17.775802
148 8 1 -0.131000 11.418887 18.054025 20.857773
149 8 2 0.068000 11.092689 17.051476 21.044428
150 8 2 0.068000 12.395276 18.035051 20.418849
151 8 3 0.791000 11.465367 18.798220 22.124625
152 8 4 0.132000 10.435451 18.742722 19.892865
153 8 5 0.034000 10.762315 19.744617 19.706569
154 8 5 0.034000 9.459728 18.761042 20.332149
155 8 6 -0.468000 10.390236 18.018776 18.660485
156 8 7 0.275000 9.777293 18.448211 18.059394
157 8 8 -0.100000 10.125024 18.823952 22.727260
158 8 9 0.033000 10.211966 18.960166 23.784684
159 8 9 0.033000 9.560901 19.629763 22.308244
160 8 9 0.033000 9.626339 17.898019 22.527129
161 8 8 -0.100000 12.404081 18.140505 23.045126
162 8 9 0.033000 12.058805 17.150261 23.258903
163 8 9 0.033000 13.372056 18.089624 22.591603
164 8 9 0.033000 12.464708 18.701949 23.953510
165 8 8 -0.100000 11.913474 20.174399 21.868341
166 8 9 0.033000 12.230402 20.622786 22.786161
167 8 9 0.033000 12.731056 20.160686 21.176874
168 8 9 0.033000 11.106510 20.741170 21.453611
169 9 1 -0.131000 8.065882 10.631621 15.026167
170 9 2 0.068000 8.535909 10.633847 15.988154
171 9 2 0.068000 7.475278 11.517876 14.916212
172 9 3 0.791000 7.201673 9.448611 14.905630
173 9 4 0.132000 9.144859 10.594038 13.927579
174 9 5 0.034000 8.674297 10.592123 12.966377
175 9 5 0.034000 9.734928 9.708094 14.038318
176 9 6 -0.468000 9.985552 11.744857 14.044836
177 9 7 0.275000 10.657841 11.721139 13.360080
178 9 8 -0.100000 8.012469 8.232027 15.056895
179 9 9 0.033000 7.391661 7.429537 15.395814
180 9 9 0.033000 8.447721 7.974001 14.115026
181 9 9 0.033000 8.789343 8.408014 15.772149
182 9 8 -0.100000 6.172114 9.484998 15.954334
183 9 9 0.033000 6.641292 9.451869 16.915726
184 9 9 0.033000 5.604738 10.388090 15.866266
185 9 9 0.033000 5.521808 8.642907 15.844601
186 9 8 -0.100000 6.556225 9.445797 13.585122
187 9 9 0.033000 5.722108 8.776483 13.597547
188 9 9 0.033000 6.217125 10.434304 13.351413
189 9 9 0.033000 7.259449 9.126805 12.844757
190 10 1 -0.131000 20.212616 16.129065 3.615877
191 10 2 0.068000 20.653326 15.794156 2.699384
192 10 2 0.068000 20.898613 15.965832 4.421553
193 10 3 0.791000 18.973922 15.378459 3.867128
194 10 4 0.132000 19.890905 17.631793 3.511897
195 10 5 0.034000 19.450714 17.965848 4.428402
196 10 5 0.034000 19.205427 17.794171 2.706233
197 10 6 -0.468000 21.095893 18.361974 3.267483
198 10 7 0.275000 20.895070 19.298405 3.202737
199 10 8 -0.100000 18.032374 15.602348 2.760914
200 10 9 0.033000 17.352223 14.779027 2.699306
201 10 9 0.033000 17.486206 16.504966 2.934471
202 10 9 0.033000 18.575279 15.685500 1.841985
203 10 8 -0.100000 19.281546 13.944362 3.966273
204 10 9 0.033000 19.689716 13.602371 3.037866
205 10 9 0.033000 19.994512 13.785529 4.748384
206 10 9 0.033000 18.385806 13.402049 4.184454
207 10 8 -0.100000 18.369152 15.838060 5.125448
208 10 9 0.033000 17.654285 15.117023 5.461543
209 10 9 0.033000 19.133052 15.955543 5.866670
210 10 9 0.033000 17.881753 16.776787 4.965280
211 11 10 -0.800000 12.364469 10.776426 8.323637
212 12 10 -0.800000 4.444622 16.917909 20.801907
213 13 10 -0.800000 19.428794 21.659433 12.940360
214 14 10 -0.800000 9.731460 16.105141 7.354040
215 15 10 -0.800000 2.230715 5.295684 1.964457
216 16 10 -0.800000 20.349169 3.825676 0.103033
217 17 10 -0.800000 16.261913 7.840833 21.224946
218 18 10 -0.800000 2.754702 17.041974 7.748259
219 19 10 -0.800000 9.396236 21.933915 22.177257
220 20 10 -0.800000 15.199940 23.871975 5.268042
221 21 11 0.124000 2.130148 21.728805 16.995388
222 21 12 -0.322000 1.613050 21.348553 18.239581
223 21 13 -0.453000 2.727690 23.039634 16.828560
224 21 13 -0.453000 2.068170 20.811810 15.873586
225 21 14 0.276000 2.482510 21.244159 15.062825
226 21 15 0.276000 1.748684 19.885842 15.634469
227 21 14 0.276000 3.045413 23.145614 15.877898
228 21 15 0.276000 2.931199 23.880317 17.346732
229 22 11 0.124000 11.994909 7.645626 10.256395
230 22 12 -0.322000 11.279082 7.579208 11.457719
231 22 13 -0.453000 11.635125 6.780731 9.149294
232 22 13 -0.453000 13.096086 8.579310 10.119268
233 22 14 0.276000 13.495777 8.494581 9.197853
234 22 15 0.276000 13.595078 9.284992 10.638579
235 22 14 0.276000 12.248841 6.959488 8.369977
236 22 15 0.276000 10.975583 6.060152 8.899422
237 23 11 0.124000 20.931833 12.656631 18.899328
238 23 12 -0.322000 19.987948 13.670991 19.099711
239 23 13 -0.453000 22.011116 12.472434 19.850317
240 23 13 -0.453000 20.830145 11.790239 17.740800
241 23 14 0.276000 21.584785 11.122187 17.753477
242 23 15 0.276000 20.256043 11.633505 16.926855
243 23 14 0.276000 22.592748 11.704442 19.553956
244 23 15 0.276000 22.373518 12.856675 20.709205
245 24 11 0.124000 14.363096 7.310410 13.762306
246 24 12 -0.322000 13.729914 8.208038 12.894351
247 24 13 -0.453000 13.770284 7.007236 15.050646
248 24 13 -0.453000 15.611704 6.683898 13.372919
249 24 14 0.276000 15.925025 6.072190 14.110197
250 24 15 0.276000 16.270814 6.656359 12.610370
251 24 14 0.276000 14.353367 6.348160 15.542143
252 24 15 0.276000 12.969160 7.236101 15.618524
253 25 11 0.124000 11.180202 10.510462 5.783138
254 25 12 -0.322000 11.313199 9.498281 6.741157
255 25 13 -0.453000 12.262319 11.451644 5.567828
256 25 13 -0.453000 9.960337 10.617610 5.006213
257 25 14 0.276000 10.034811 11.395181 4.369210
258 25 15 0.276000 9.062524 10.173409 4.890970
259 25 14 0.276000 11.999560 12.107032 4.848549
260 25 15 0.276000 13.189962 11.668827 5.897941
261 26 11 0.124000 2.693774 21.538346 22.781042
262 26 12 -0.322000 3.980273 21.480506 23.330202
263 26 13 -0.453000 1.652967 20.659451 23.278460
264 26 13 -0.453000 2.402137 22.477148 21.714852
265 26 14 0.276000 1.436604 22.384947 21.440658
266 26 15 0.276000 2.843452 23.191372 21.156471
267 26 14 0.276000 0.797185 20.833538 22.775202
268 26 15 0.276000 1.500195 19.932254 23.960009
269 27 11 0.124000 21.013093 14.689059 14.378638
270 27 12 -0.322000 21.167482 15.989543 13.883758
271 27 13 -0.453000 19.987041 14.405128 15.363403
272 27 13 -0.453000 21.879241 13.626061 13.906427
273 27 14 0.276000 21.631354 12.762569 14.363452
274 27 15 0.276000 22.646805 13.463003 13.273243
275 27 14 0.276000 20.016356 13.427506 15.606986
276 27 15 0.276000 19.254104 14.859866 15.885592
277 28 11 0.124000 18.690293 9.728347 22.440701
278 28 12 -0.322000 18.971079 8.396606 22.768766
279 28 13 -0.453000 17.718037 10.476126 23.214461
280 28 13 -0.453000 19.371737 10.359870 21.327160
281 28 14 0.276000 19.051850 11.311068 21.233179
282 28 15 0.276000 20.058912 10.164430 20.615642
283 28 14 0.276000 17.640412 11.410293 22.843996
284 28 15 0.276000 17.093838 10.372876 23.999560
285 29 11 0.124000 22.041510 10.009487 2.876927
286 29 12 -0.322000 22.894241 11.039857 2.463178
287 29 13 -0.453000 20.760570 9.822041 2.223307
288 29 13 -0.453000 22.439264 9.129764 3.959074
289 29 14 0.276000 21.712691 8.451118 4.124807
290 29 15 0.276000 23.200488 8.970827 4.600900
291 29 14 0.276000 20.279920 9.041979 2.643325
292 29 15 0.276000 20.190601 10.212076 1.488682
293 30 11 0.124000 15.680665 16.263710 8.850028
294 30 12 -0.322000 15.055596 17.018591 9.849750
295 30 13 -0.453000 16.759357 16.842283 8.072314
296 30 13 -0.453000 15.249367 14.903296 8.592316
297 30 14 0.276000 15.802430 14.510976 7.846566
298 30 15 0.276000 14.580563 14.219148 8.910606
299 30 14 0.276000 17.091212 16.165907 7.402743
300 30 15 0.276000 17.287966 17.695740 7.978247
301 31 11 0.124000 21.484690 2.784647 3.295557
302 31 12 -0.322000 21.377047 2.859084 1.901687
303 31 13 -0.453000 21.590146 1.493079 3.946628
304 31 13 -0.453000 21.490721 3.999119 4.088136
305 31 14 0.276000 21.574200 3.762865 5.064431
306 31 15 0.276000 21.439229 5.001103 3.987931
307 31 14 0.276000 21.659059 1.623952 4.943653
308 31 15 0.276000 21.617496 0.507790 3.734208
309 32 11 0.124000 12.037863 14.600503 16.320894
310 32 12 -0.322000 13.138252 13.756590 16.128656
311 32 13 -0.453000 11.271114 14.523603 17.549447
312 32 13 -0.453000 11.664925 15.551456 15.291444
313 32 14 0.276000 10.857160 16.073537 15.592916
314 32 15 0.276000 11.944470 15.864357 14.374595
315 32 14 0.276000 10.521042 15.196262 17.520128
316 32 15 0.276000 11.238370 14.021424 18.423179
317 33 11 0.124000 8.028802 8.456919 9.351643
318 33 12 -0.322000 8.748912 7.448705 8.699765
319 33 13 -0.453000 8.605545 9.779145 9.500802
320 33 13 -0.453000 6.706229 8.178915 9.877644
321 33 14 0.276000 6.335616 9.009801 10.311478
322 33 15 0.276000 6.033912 7.431366 9.953957
323 33 14 0.276000 7.956688 10.375602 9.989842
324 33 15 0.276000 9.439373 10.300566 9.278282
325 34 11 0.124000 10.172825 5.786803 19.941286
326 34 12 -0.322000 10.057266 6.428921 18.702605
327 34 13 -0.453000 9.233052 4.745047 20.308345
328 34 13 -0.453000 11.232284 6.163509 20.857147
329 34 14 0.276000 11.167643 5.605081 21.693757
330 34 15 0.276000 12.012014 6.797933 20.935836
331 34 14 0.276000 9.461292 4.394420 21.225353
332 34 15 0.276000 8.427404 4.254641 19.951837
333 35 11 0.124000 7.681603 13.179310 9.495239
334 35 12 -0.322000 7.311761 12.433649 10.620941
335 35 13 -0.453000 7.876227 14.612098 9.606595
336 35 13 -0.453000 7.870030 12.518813 8.217976
337 35 14 0.276000 8.132279 13.199964 7.522853
338 35 15 0.276000 7.826098 11.605211 7.793632
339 35 14 0.276000 8.137568 14.986589 8.708044
340 35 15 0.276000 7.837209 15.358458 10.283417
341 36 11 0.124000 17.784041 19.958779 20.234347
342 36 12 -0.322000 17.127763 20.085919 19.004252
343 36 13 -0.453000 18.691578 18.850502 20.460750
344 36 13 -0.453000 17.556219 20.935376 21.281972
345 36 14 0.276000 18.103934 20.692665 22.092551
346 36 15 0.276000 17.032456 21.776279 21.469638
347 36 14 0.276000 19.072966 18.913219 21.391635
348 36 15 0.276000 19.068148 18.038114 19.997191
349 37 11 0.124000 16.472998 16.636212 12.501748
350 37 12 -0.322000 15.371454 17.381035 12.063751
351 37 13 -0.453000 16.730712 15.324274 11.939997
352 37 13 -0.453000 17.356167 17.176726 13.517138
353 37 14 0.276000 18.090089 16.513809 13.711654
354 37 15 0.276000 17.480628 17.994744 14.093351
355 37 14 0.276000 17.556261 14.932735 12.365560
356 37 15 0.276000 16.359191 14.673310 11.265548
357 38 11 0.124000 14.625218 3.351208 8.797800
358 38 12 -0.322000 14.143241 3.230071 7.488975
359 38 13 -0.453000 14.080219 2.516700 9.851239
360 38 13 -0.453000 15.669409 4.311180 9.099930
361 38 14 0.276000 15.894174 4.265485 10.081424
362 38 15 0.276000 16.245467 5.009100 8.655264
363 38 14 0.276000 14.537796 2.733891 10.722668
364 38 15 0.276000 13.396060 1.791610 10.002355
365 39 11 0.124000 3.458586 2.094135 16.405611
366 39 12 -0.322000 4.814299 1.747218 16.446721
367 39 13 -0.453000 3.057298 3.391380 15.896410
368 39 13 -0.453000 2.455741 1.156197 16.872233
369 39 14 0.276000 1.540153 1.565489 16.771656
370 39 15 0.276000 2.369259 0.231050 17.263754
371 39 14 0.276000 2.053584 3.473224 15.938788
372 39 15 0.276000 3.447848 4.238719 15.514110
373 40 11 0.124000 11.315210 5.578378 15.167816
374 40 12 -0.322000 11.027922 5.389351 16.524921
375 40 13 -0.453000 11.073457 6.867108 14.548226
376 40 13 -0.453000 11.854511 4.485426 14.381832
377 40 14 0.276000 12.000659 4.793684 13.433383
378 40 15 0.276000 12.131979 3.519898 14.468046
379 40 14 0.276000 11.334027 6.826458 13.575402
380 40 15 0.276000 10.731554 7.790240 14.766391

Bonds

1 1 11 10
2 1 12 10
3 1 13 10
4 1 15 14
5 1 16 14
6 1 17 14
7 1 19 18
8 1 20 18
9 1 21 18
10 2 10 4
11 2 14 4
12 2 18 4
13 3 4 1
14 4 1 2
15 4 1 3
16 5 1 5
17 6 5 6
18 6 5 7
19 7 5 8
20 8 8 9
21 1 32 31
22 1 33 31
23 1 34 31
24 1 36 35
25 1 37 35
26 1 38 35
27 1 40 39
28 1 41 39
29 1 42 39
30 2 31 25
31 2 35 25
32 2 39 25
33 3 25 22
34 4 22 23
35 4 22 24
36 5 22 26
37 6 26 27
38 6 26 28
39 7 26 29
40 8 29 30
41 1 53 52
42 1 54 52
43 1 55 52
44 1 57 56
45 1 58 56
46 1 59 56
47 1 61 60
48 1 62 60
49 1 63 60
50 2 52 46
51 2 56 46
52 2 60 46
53 3 46 43
54 4 43 44
55 4 43 45
56 5 43 47
57 6 47 48
58 6 47 49
59 7 47 50
60 8 50 51
61 1 74 73
62 1 75 73
63 1 76 73
64 1 78 77
65 1 79 77
66 1 80 77
67 1 82 81
68 1 83 81
69 1 84 81
70 2 73 67
71 2 77 67
72 2 81 67
73 3 67 64
74 4 64 65
75 4 64 66
76 5 64 68
77 6 68 69
78 6 68 70
79 7 68 71
80 8 71 72
81 1 95 94
82 1 96 94
83 1 97 94
84 1 99 98
85 1 100 98
86 1 101 98
87 1 103 102
88 1 104 102
89 1 105 102
90 2 94 88
91 2 98 88
92 2 102 88
93 3 88 85
94 4 85 86
95 4 85 87
96 5 85 89
97 6 89 90
98 6 89 91
99 7 89 92
100 8 92 93
101 1 116 115
102 1 117 115
103 1 118 115
104 1 120 119
105 1 121 119
106 1 122 119
107 1 124 123
108 1 125 123
109 1 126 123
110 2 115 109
111 2 119 109
112 2 123 109
113 3 109 106
114 4 106 107
115 4 106 108
116 5 106 110
117 6 110 111
118 6 110 112
119 7 110 113
120 8 113 114
121 1 137 136
122 1 138 136
123 1 139 136
124 1 141 140
125 1 142 140
126 1 143 140
127 1 145 144
128 1 146 144
129 1 147 144
130 2 136 130
131 2 140 130
132 2 144 130
133 3 130 127
134 4 127 128
135 4 127 129
136 5 127 131
137 6 131 132
138 6 131 133
139 7 131 134
140 8 134 135
141 1 158 157
142 1 159 157
143 1 160 157
144 1 162 161
145 1 163 161
146 1 164 161
147 1 166 165
148 1 167 165
149 1 168 165
150 2 157 151
151 2 161 151
152 2 165 151
153 3 151 148
154 4 148 149
155 4 148 150
156 5 148 152
157 6 152 153
158 6 152 154
159 7 152 155
160 8 155 156
161 1 179 178
162 1 180 178
163 1 181 178
164 1 183 182
165 1 184 182
166 1 185 182
167 1 187 186
168 1 188 186
169 1 189 186
170 2 178 172
171 2 182 172
172 2 186 172
173 3 172 169
174 4 169 170
175 4 169 171
176 5 169 173
177 6 173 174
178 6 173 175
179 7 173 176
180 8 176 177
181 1 200 199
182 1 201 199
183 1 202 199
184 1 204 203
185 1 205 203
186 1 206 203
187 1 208 207
188 1 209 207
189 1 210 207
190 2 199 193
191 2 203 193
192 2 207 193
193 3 193 190
194 4 190 191
195 4 190 192
196 5 190 194
197 6 194 195
198 6 194 196
199 7 194 197
200 8 197 198
201 9 221 222
202 10 221 223
203 10 221 224
204 11 223 227
205 11 223 228
206 11 224 225
207 11 224 226
208 9 229 230
209 10 229 231
210 10 229 232
211 11 231 235
212 11 231 236
213 11 232 233
214 11 232 234
215 9 237 238
216 10 237 239
217 10 237 240
218 11 239 243
219 11 239 244
220 11 240 241
221 11 240 242
222 9 245 246
223 10 245 247
224 10 245 248
225 11 247 251
226 11 247 252
227 11 248 249
228 11 248 250
229 9 253 254
230 10 253 255
231 10 253 256
232 11 255 259
233 11 255 260
234 11 256 257
235 11 256 258
236 9 261 262
237 10 261 263
238 10 261 264
239 11 263 267
240 11 263 268
241 11 264 265
242 11 264 266
243 9 269 270
244 10 269 271
245 10 269 272
246 11 271 275
247 11 271 276
248 11 272 273
249 11 272 274
250 9 277 278
251 10 277 279
252 10 277 280
253 11 279 283
254 11 279 284
255 11 280 281
256 11 280 282
257 9 285 286
258 10 285 287
259 10 285 288
260 11 287 291
261 11 287 292
262 11 288 289
263 11 288 290
264 9 293 294
265 10 293 295
266 10 293 296
267 11 295 299
268 11 295 300
269 11 296 297
270 11 296 298
271 9 301 302
272 10 301 303
273 10 301 304
274 11 303 307
275 11 303 308
276 11 304 305
277 11 304 306
278 9 309 310
279 10 309 311
280 10 309 312
281 11 311 315
282 11 311 316
283 11 312 313
284 11 312 314
285 9 317 318
286 10 317 319
287 10 317 320
288 11 319 323
289 11 319 324
290 11 320 321
291 11 320 322
292 9 325 326
293 10 325 327
294 10 325 328
295 11 327 331
296 11 327 332
297 11 328 329
298 11 328 330
299 9 333 334
300 10 333 335
301 10 333 336
302 11 335 339
303 11 335 340
304 11 336 337
305 11 336 338
306 9 341 342
307 10 341 343
308 10 341 344
309 11 343 347
310 11 343 348
311 11 344 345
312 11 344 346
313 9 349 350
314 10 349 351
315 10 349 352
316 11 351 355
317 11 351 356
318 11 352 353
319 11 352 354
320 9 357 358
321 10 357 359
322 10 357 360
323 11 359 363
324 11 359 364
325 11 360 361
326 11 360 362
327 9 365 366
328 10 365 367
329 10 365 368
330 11 367 371
331 11 367 372
332 11 368 369
333 11 368 370
334 9 373 374
335 10 373 375
336 10 373 376
337 11 375 379
338 11 375 380
339 11 376 377
340 11 376 378

Angles

1 1 11 10 12
2 1 11 10 13
3 1 12 10 13
4 1 15 14 16
5 1 15 14 17
6 1 16 14 17
7 1 19 18 20
8 1 19 18 21
9 1 20 18 21
10 2 11 10 4
11 2 12 10 4
12 2 13 10 4
13 2 15 14 4
14 2 16 14 4
15 2 17 14 4
16 2 19 18 4
17 2 20 18 4
18 2 21 18 4
19 3 10 4 1
20 3 14 4 1
21 3 18 4 1
22 4 4 1 2
23 4 4 1 3
24 5 4 1 5
25 6 1 5 6
26 6 1 5 7
27 7 1 5 8
28 8 2 1 5
29 8 3 1 5
30 9 6 5 8
31 9 7 5 8
32 10 5 8 9
33 11 10 4 14
34 11 10 4 18
35 11 14 4 18
36 12 2 1 3
37 13 6 5 7
38 1 32 31 33
39 1 32 31 34
40 1 33 31 34
41 1 36 35 37
42 1 36 35 38
43 1 37 35 38
44 1 40 39 41
45 1 40 39 42
46 1 41 39 42
47 2 32 31 25
48 2 33 31 25
49 2 34 31 25
50 2 36 35 25
51 2 37 35 25
52 2 38 35 25
53 2 40 39 25
54 2 41 39 25
55 2 42 39 25
56 3 31 25 22
57 3 35 25 22
58 3 39 25 22
59 4 25 22 23
60 4 25 22 24
61 5 25 22 26
62 6 22 26 27
63 6 22 26 28
64 7 22 26 29
65 8 23 22 26
66 8 24 22 26
67 9 27 26 29
68 9 28 26 29
69 10 26 29 30
70 11 31 25 35
71 11 31 25 39
72 11 35 25 39
73 12 23 22 24
74 13 27 26 28
75 1 53 52 54
76 1 53 52 55
77 1 54 52 55
78 1 57 56 58
79 1 57 56 59
80 1 58 56 59
81 1 61 60 62
82 1 61 60 63
83 1 62 60 63
84 2 53 52 46
85 2 54 52 46
86 2 55 52 46
87 2 57 56 46
88 2 58 56 46
89 2 59 56 46
90 2 61 60 46
91 2 62 60 46
92 2 63 60 46
93 3 52 46 43
94 3 56 46 43
95 3 60 46 43
96 4 46 43 44
97 4 46 43 45
98 5 46 43 47
99 6 43 47 48
100 6 43 47 49
101 7 43 47 50
102 8 44 43 47
103 8 45 43 47
104 9 48 47 50
105 9 49 47 50
106 10 47 50 51
107 11 52 46 56
108 11 52 46 60
109 11 56 46 60
110 12 44 43 45
111 13 48 47 49
112 1 74 73 75
113 1 74 73 76
114 1 75 73 76
115 1 78 77 79
116 1 78 77 80
117 1 79 77 80
118 1 82 81 83
119 1 82 81 84
120 1 83 81 84
121 2 74 73 67
122 2 75 73 67
123 2 76 73 67
124 2 78 77 67
125 2 79 77 67
126 2 80 77 67
127 2 82 81 67
128 2 83 81 67
129 2 84 81 67
130 3 73 67 64
131 3 77 67 64
132 3 81 67 64
133 4 67 64 65
134 4 67 64 66
135 5 67 64 68
136 6 64 68 69
137 6 64 68 70
138 7 64 68 71
139 8 65 64 68
140 8 66 64 68
141 9 69 68 71
142 9 70 68 71
143 10 68 71 72
144 11 73 67 77
145 11 73 67 81
146 11 77 67 81
147 12 65 64 66
148 13 69 68 70
149 1 95 94 96
150 1 95 94 97
151 1 96 94 97
152 1 99 98 100
153 1 99 98 101
154 1 100 98 101
155 1 103 102 104
156 1 103 102 105
157 1 104 102 105
158 2 95 94 88
159 2 96 94 88
160 2 97 94 88
161 2 99 98 88
162 2 100 98 88
163 2 101 98 88
164 2 103 102 88
165 2 104 102 88
166 2 105 102 88
167 3 94 88 85
168 3 98 88 85
169 3 102 88 85
170 4 88 85 86
171 4 88 85 87
172 5 88 85 89
173 6 85 89 90
174 6 85 89 91
175 7 85 89 92
176 8 86 85 89
177 8 87 85 89
178 9 90 89 92
179 9 91 89 92
180 10 89 92 93
181 11 94 88 98
182 11 94 88 102
183 11 98 88 102
184 12 86 85 87
185 13 90 89 91
186 1 116 115 117
187 1 116 115 118
188 1 117 115 118
189 1 120 119 121
190 1 120 119 122
191 1 121 119 122
192 1 124 123 125
193 1 124 123 126
194 1 125 123 126
195 2 116 115 109
196 2 117 115 109
197 2 118 115 109
198 2 120 119 109
199 2 121 119 109
200 2 122 119 109
201 2 124 123 109
202 2 125 123 109
203 2 126 123 109
204 3 115 109 106
205 3 119 109 106
206 3 123 109 106
207 4 109 106 107
208 4 109 106 108
209 5 109 106 110
210 6 106 110 111
211 6 106 110 112
212 7 106 110 113
213 8 107 106 110
214 8 108 106 110
215 9 111 110 113
216 9 112 110 113
217 10 110 113 114
218 11 115 109 119
219 11 115 109 123
220 11 119 109 123
221 12 107 106 108
222 13 111 110 112
223 1 137 136 138
224 1 137 136 139
225 1 138 136 139
226 1 141 140 142
227 1 141 140 143
228 1 142 140 143
229 1 145 144 146
230 1 145 144 147
231 1 146 144 147
232 2 137 136 130
233 2 138 136 130
234 2 139 136 130
235 2 141 140 130
236 2 142 140 130
237 2 143 140 130
238 2 145 144 130
239 2 146 144 130
240 2 147 144 130
241 3 136 130 127
242 3 140 130 127
243 3 144 130 127
244 4 130 127 128
245 4 130 127 129
246 5 130 127 131
247 6 127 131 132
248 6 127 131 133
249 7 127 131 134
250 8 128 127 131
251 8 129 127 131
252 9 132 131 134
253 9 133 131 134
254 10 131 134 135
255 11 136 130 140
256 11 136 130 144
257 11 140 130 144
258 12 128 127 129
259 13 132 131 133
260 1 158 157 159
261 1 158 157 160
262 1 159 157 160
263 1 162 161 163
264 1 162 161 164
265 1 163 161 164
266 1 166 165 167
267 1 166 165 168
268 1 167 165 168
269 2 158 157 151
270 2 159 157 151
271 2 160 157 151
272 2 162 161 151
273 2 163 161 151
274 2 164 161 151
275 2 166 165 151
276 2 167 165 151
277 2 168 165 151
278 3 157 151 148
279 3 161 151 148
280 3 165 151 148
281 4 151 148 149
282 4 151 148 150
283 5 151 148 152
284 6 148 152 153
285 6 148 152 154
286 7 148 152 155
287 8 149 148 152
288 8 150 148 152
289 9 153 152 155
290 9 154 152 155
291 10 152 155 156
292 11 157 151 161
293 11 157 151 165
294 11 161 151 165
295 12 149 148 150
296 13 153 152 154
297 1 179 178 180
298 1 179 178 181
299 1 180 178 181
300 1 183 182 184
301 1 183 182 185
302 1 184 182 185
303 1 187 186 188
304 1 187 186 189
305 1 188 186 189
306 2 179 178 172
307 2 180 178 172
308 2 181 178 172
309 2 183 182 172
310 2 184 182 172
311 2 185 182 172
312 2 187 186 172
313 2 188 186 172
314 2 189 186 172
315 3 178 172 169
316 3 182 172 169
317 3 186 172 169
318 4 172 169 170
319 4 172 169 171
320 5 172 169 173
321 6 169 173 174
322 6 169 173 175
323 7 169 173 176
324 8 170 169 173
325 8 171 169 173
326 9 174 173 176
327 9 175 173 176
328 10 173 176 177
329 11 178 172 182
330 11 178 172 186
331 11 182 172 186
332 12 170 169 171
333 13 174 173 175
334 1 200 199 201
335 1 200 199 202
336 1 201 199 202
337 1 204 203 205
338 1 204 203 206
339 1 205 203 206
340 1 208 207 209
341 1 208 207 210
342 1 209 207 210
343 2 200 199 193
344 2 201 199 193
345 2 202 199 193
346 2 204 203 193
347 2 205 203 193
348 2 206 203 193
349 2 208 207 193
350 2 209 207 193
351 2 210 207 193
352 3 199 193 190
353 3 203 193 190
354 3 207 193 190
355 4 193 190 191
356 4 193 190 192
357 5 193 190 194
358 6 190 194 195
359 6 190 194 196
360 7 190 194 197
361 8 191 190 194
362 8 192 190 194
363 9 195 194 197
364 9 196 194 197
365 10 194 197 198
366 11 199 193 203
367 11 199 193 207
368 11 203 193 207
369 12 191 190 192
370 13 195 194 196
371 14 222 221 223
372 14 222 221 224
373 15 221 223 227
374 15 221 223 228
375 15 221 224 225
376 15 221 224 226
377 16 223 221 224
378 17 225 224 226
379 17 227 223 228
380 14 230 229 231
381 14 230 229 232
382 15 229 231 235
383 15 229 231 236
384 15 229 232 233
385 15 229 232 234
386 16 231 229 232
387 17 233 232 234
388 17 235 231 236
389 14 238 237 239
390 14 238 237 240
391 15 237 239 243
392 15 237 239 244
393 15 237 240 241
394 15 237 240 242
395 16 239 237 240
396 17 241 240 242
397 17 243 239 244
398 14 246 245 247
399 14 246 245 248
400 15 245 247 251
401 15 245 247 252
402 15 245 248 249
403 15 245 248 250
404 16 247 245 248
405 17 249 248 250
406 17 251 247 252
407 14 254 253 255
408 14 254 253 256
409 15 253 255 259
410 15 253 255 260
411 15 253 256 257
412 15 253 256 258
413 16 255 253 256
414 17 257 256 258
415 17 259 255 260
416 14 262 261 263
417 14 262 261 264
418 15 261 263 267
419 15 261 263 268
420 15 261 264 265
421 15 261 264 266
422 16 263 261 264
423 17 265 264 266
424 17 267 263 268
425 14 270 269 271
426 14 270 269 272
427 15 269 271 275
428 15 269 271 276
429 15 269 272 273
430 15 269 272 274
431 16 271 269 272
432 17 273 272 274